# vtk DataFile Version 2.0
sampleSurface
ASCII
DATASET POLYDATA
POINTS 13787 float
19.6443 -16.9975 0 25.8619 -9.4058 0 21.2873 -17.8902 0 11.7189 -31.6966
0 -27.7119 20.3245 0 16.0792 -34.0658 0 15.3756 -35.3709 0
-42.0505 -5.8977 0 19.6443 -16.9975 36.8808 41.8717 -18.105 0 42.2088
-17.4798 0 25.8619 -9.4058 36.8808 21.2873 -17.8902 36.8808 -12.8765 47.4555
0 11.7189 -31.6966 36.8808 27.7843 -42.1132 0 27.247 -43.1097 0
1.5006 -51.7632 0 2.2575 -52.1798 0 16.0792 -34.0658 36.8808 -3.2259
-53.1745 0 15.3756 -35.3709 36.8808 -44.9855 29.8429 0 29.453 45.4069
0 30.5773 -44.9192 0 54.4278 5.1792 0 29.9373 46.2833 0
-51.461 -22.0333 0 11.208 -57.1063 0 41.8717 -18.105 36.8808 41.8717
-18.105 37.3563 42.2088 -17.4798 37.3563 47.3999 35.413 0 -60.4769 4.256
0 27.7843 -42.1132 36.8808 -52.7389 34.1153 0 62.8895 0.5815 0
27.247 -43.1097 36.8808 -28.7356 56.1945 0 63.3081 0.3539 0 40.7896
-49.2745 0 64.138 -0.097 0 40.2919 -50.1978 0 -9.0347 -63.8102
0 30.5773 -44.9192 36.8808 54.4278 5.1792 37.3563 -67.0774 7.8931 0
23.4282 -63.5578 0 23.3128 -63.7691 0 -5.3044 68.1672 0 23.4282
-63.5578 12.3322 23.3128 -63.7691 12.3322 -34.12 -62.1177 0 -23.09 -68.1888
0 29.0396 -66.6463 0 29.0396 -66.6463 7.2238 62.8895 0.5815 37.3563
63.3081 0.3539 37.3563 29.0396 -66.6463 12.3322 40.7896 -49.2745 36.8808 40.2919
-50.1978 36.8808 -38.5153 -63.4422 0 64.138 -0.097 37.3563 -14.5417 73.3124
0 -38.977 -64.2876 0 68.2669 -32.4473 0 52.4094 -54.8824 0
52.1151 -55.4284 0 -75.9804 -8.3219 0 -27.7119 20.3245 68.641 34.2058
-69.4899 0 34.2058 -69.4899 7.2238 57.4988 -52.4182 0 68.5531 -37.2518
0 57.0733 -53.2073 0 33.0546 -71.5975 0 55.318 -56.4628 0
33.0546 -71.5975 7.2238 33.0546 -71.5975 12.6187 60.2459 -52.6584 0 53.6983
-59.4666 0 59.256 -54.3933 0 68.5531 -37.2518 20.4734 57.0733 -53.2073
20.4734 -42.0505 -5.8977 68.641 60.9138 -53.0212 0 60.0347 -54.6516 0
59.8098 -55.0687 0 55.318 -56.4628 20.4734 -80.3205 15.1905 0 60.2459
-52.6584 20.4734 11.9162 -81.7803 0 53.6983 -59.4666 20.4734 59.256 -54.3933
20.4734 60.9138 -53.0212 20.4734 11.423 -82.6831 0 13.1152 -82.4401 0
60.0347 -54.6516 20.4734 59.8098 -55.0687 20.4734 38.5014 -74.5956 0 68.2669
-32.4473 36.8808 68.2669 -32.4473 37.3563 52.4094 -54.8824 36.8808 13.1152 -82.4401
12.3322 52.1151 -55.4284 36.8808 5.9406 -84.4286 0 38.5014 -74.5956 12.6187
38.5014 -74.5956 12.9235 4.6886 -84.8272 0 11.7921 -84.8626 0 57.4988
-52.4182 36.8808 57.0733 -53.2073 36.8808 11.7921 -84.8626 12.3322 55.318 -56.4628
36.8808 -44.9855 29.8429 68.641 77.3629 -42.0388 0 67.7138 -57.0471 0
-34.9517 81.8022 0 -88.9611 -1.063 0 43.7743 -77.498 0 66.6688
-58.9853 0 88.4426 12.558 0 67.3175 -59.0189 0 17.4034 -87.9511
0 69.1757 -57.2228 0 -34.2869 83.005 0 68.9177 -57.7012 0
43.7743 -77.498 12.9235 17.4034 -87.9511 7.2238 77.3629 -42.0388 20.4734 17.4034
-87.9511 12.3322 -33.7331 84.0069 0 -33.7456 84.0087 0 67.7138 -57.0471
20.4734 79.9391 -43.4381 0 72.4605 -55.4959 0 82.1241 -39.9769 0
66.6688 -58.9853 20.4734 83.1679 -38.0411 0 -60.4769 4.256 68.641 71.5201
-57.2399 0 67.3175 -59.0189 20.4734 85.7147 -33.3178 0 73.695 -55.0188
0 69.5667 -60.2411 0 69.1757 -57.2228 20.4734 68.9177 -57.7012 20.4734
69.1644 -60.9872 0 79.9391 -43.4381 16.7426 48.1582 79.2574 0 72.0635
-58.4179 0 72.4605 -55.4959 16.7426 71.8724 -58.7723 0 -52.7389 34.1153
68.641 71.5201 -57.2399 16.7426 50.4411 -78.3408 0 70.7222 -60.9056 0
73.695 -55.0188 16.7426 69.1644 -60.9872 16.7426 66.294 -66.3108 0 -89.6415
-28.3043 0 72.0635 -58.4179 16.7426 69.5667 -60.2411 20.4734 71.8724 -58.7723
16.7426 49.254 -80.5142 0 14.473 -93.3164 0 69.1644 -60.9872 20.4734
-92.1354 21.701 0 14.473 -93.3164 7.2238 70.7222 -60.9056 16.7426 -88.9611
-1.063 33.2964 66.294 -66.3108 16.7426 49.254 -80.5142 12.9235 50.4411 -78.3408
20.3576 66.294 -66.3108 20.4734 95.6287 8.5563 0 94.6791 -16.692 0
-67.0774 7.8931 68.641 49.254 -80.5142 20.3576 -93.3968 24.993 0 47.0137
-84.6162 0 50.2335 83.0129 0 -94.184 23.5533 0 85.4187 -46.4156
0 -94.488 22.9974 0 96.5154 -13.2866 0 96.547 -13.2279 0
47.0137 -84.6162 12.9235 19.6392 -96.16 0 79.12 -58.0972 0 83.1679
-38.0411 35.7226 48.6194 -85.5 0 19.6392 -96.16 7.2238 -2.7193 -98.3903
0 77.0797 -61.2797 0 76.9444 -61.5307 0 85.4187 -46.4156 16.7426
85.7147 -33.3178 35.7226 82.1241 -39.9769 37.3563 83.1679 -38.0411 37.3563 47.0137
-84.6162 20.3576 19.6392 -96.16 12.6187 75.7363 -63.7711 0 -50.4298 -85.2571
0 85.7147 -33.3178 37.3563 87.236 -47.4031 0 79.5297 -59.4409 0
48.4485 -86.7466 0 -2.7193 -98.3903 14.1732 48.0733 -87.1953 0 79.12
-58.0972 16.7426 78.5639 -61.2323 0 77.0797 -61.2797 16.7426 76.9444 -61.5307
16.7426 80.9374 -59.0847 0 51.808 85.8622 0 0.8707 -100.366 0
75.7363 -63.7711 16.7426 76.5138 -65.0344 0 48.6194 -85.5 20.3576 79.1549
-62.1712 0 87.236 -47.4031 16.7026 79.5297 -59.4409 16.7026 79.5297 -59.4409
16.7426 78.5639 -61.2323 16.7026 78.5639 -61.2323 16.7426 79.3809 -62.5302 0
0.8707 -100.366 14.1732 48.4485 -86.7466 20.3576 78.0376 -65.0216 0 80.9374
-59.0847 16.7026 48.0733 -87.1953 20.3576 76.5138 -65.0344 16.7026 76.5138 -65.0344
16.7426 73.6658 -70.3164 0 79.1549 -62.1712 16.7026 -94.8595 -37.7079 0
25.0859 -99.1579 0 79.3809 -62.5302 16.7026 24.6399 -99.4906 0 94.6791
-16.692 35.7226 78.0376 -65.0216 16.7026 -102.751 6.6485 0 25.0859 -99.1579
12.6187 -100.659 -22.1434 0 25.0859 -99.1579 12.9235 94.6791 -16.692 37.3563
44.3973 -93.1168 0 73.6658 -70.3164 16.7026 -48.8036 -90.9308 0 73.6658
-70.3164 16.7426 44.737 -93.3037 0 -68.2432 77.9648 0 96.5154 -13.2866
35.7226 96.547 -13.2279 35.7226 61.0652 -84.1885 0 44.3973 -93.1168 20.3576
-14.2187 104.294 0 55.4758 -89.5007 0 54.492 -90.1709 0 -105.346
1.9487 0 24.6399 -99.4906 24.6705 44.737 -93.3037 20.3576 59.4758 -87.0983
0 18.3892 103.977 0 92.8056 -50.4295 0 14.9564 104.824 0
61.0652 -84.1885 20.3576 -102.822 -26.0415 0 54.5403 -91.1028 0 95.0973
-47.3656 0 104.846 -17.7372 0 59.4758 -87.0983 14.2951 30.3588 -102.06
0 96.4004 -45.2314 0 86.507 -62.1111 0 97.238 -43.678 0
15.619 105.52 0 84.4097 -65.2553 0 15.4065 105.638 0 92.8056
-50.4295 16.7026 99.5654 -39.3616 0 18.3892 103.977 18.4069 82.963 -67.9385
0 55.4758 -89.5007 20.3576 30.3588 -102.06 12.9235 54.492 -90.1709 20.3576
57.5424 -90.6383 0 59.4758 -87.0983 20.3576 86.833 -63.4093 0 94.6306
-51.4211 0 85.6873 -65.2855 0 86.507 -62.1111 16.7026 85.8196 -65.2887
0 -94.8595 -37.7079 35.1983 84.4097 -65.2553 16.7026 54.5403 -91.1028 20.3576
-102.751 6.6485 33.2964 15.619 105.52 18.4069 57.5424 -90.6383 14.2951 -100.659
-22.1434 33.2964 86.1061 -65.7169 0 15.4065 105.638 18.4069 82.963 -67.9385
16.7026 88.332 -63.1028 0 83.7126 -69.1963 0 -108.675 3.7988 0
10.7253 108.245 0 86.833 -63.4093 16.6825 86.833 -63.4093 16.7026 -99.0471
-45.2545 0 94.6306 -51.4211 16.6825 85.6873 -65.2855 16.7026 85.8196 -65.2887
16.6825 85.8196 -65.2887 16.7026 86.5892 -66.4395 0 57.5424 -90.6383 20.3576
86.1061 -65.7169 16.6825 85.1424 -69.1228 0 -20.5638 107.833 0 -20.5763
107.835 0 88.332 -63.1028 16.6825 80.969 -74.2848 0 83.7126 -69.1963
16.6825 83.7126 -69.1963 16.7026 39.1419 -102.739 0 -57.1559 94.1697 0
-80.845 -74.9865 0 10.7253 108.245 18.4069 86.5892 -66.4395 16.6825 -105.346
1.9487 33.2964 64.6024 -89.9202 0 108.552 -22.694 0 85.1424 -69.1228
16.6825 35.8386 -105.076 0 80.969 -74.2848 16.6825 80.969 -74.2848 16.7026
-102.822 -26.0415 33.2964 21.2801 109.207 0 109.609 -20.3206 0 64.6024
-89.9202 14.2951 109.78 -20.4182 0 64.6024 -89.9202 14.9322 35.8386 -105.076
12.9235 18.7782 -110.223 0 39.1419 -102.739 20.3576 -85.5442 -72.3587 0
104.846 -17.7372 35.7226 3.5916 112.219 0 96.4004 -45.2314 35.7226 97.238
-43.678 35.7226 -10.2385 -112.158 0 18.7782 -110.223 14.1732 21.2801 109.207
18.4069 99.5654 -39.3616 35.7226 12.9813 112.327 0 -10.2385 -112.158 14.1732
3.5916 112.219 18.4069 100.048 -54.3649 0 -106.363 -41.1983 0 -9.1399
114.025 0 -99.0471 -45.2545 35.1983 18.7782 -110.223 24.6705 12.9813 112.327
18.4069 -11.2786 -114.062 0 93.6781 -66.1789 0 58.7924 98.5017 0
-27.3397 111.607 0 -27.3522 111.609 0 58.9156 98.7246 0 100.048
-54.3649 16.6825 100.794 -55.5911 0 91.7568 -69.5877 0 98.0685 -60.6447
0 -11.2786 -114.062 14.1732 90.5389 -71.8465 0 70.2975 -92.1002 0
93.6781 -66.1789 16.6825 94.1172 -67.847 0 93.9943 -68.075 0 46.0948
-106.566 0 69.8966 -92.8342 0 93.4362 -69.11 0 93.2651 -69.4275
0 98.2759 -62.1776 0 -27.3522 111.609 18.0533 91.7568 -69.5877 16.6825
5.8477 116.3 0 -3.9422 116.415 0 108.552 -22.694 35.7226 96.9826
-64.5763 0 92.4426 -70.9528 0 -107.492 -45.0381 0 -9.1399 114.025
23.2867 90.5389 -71.8465 16.6825 70.2975 -92.1002 15.2491 90.9034 -73.4759 0
-108.245 -44.6202 0 100.794 -55.5911 21.5768 90.3324 -74.5349 0 69.8966
-92.8342 14.9322 69.8966 -92.8342 15.2491 109.78 -20.4182 35.7226 93.9943 -68.075
16.6825 98.0685 -60.6447 21.5768 -5.608 -117.183 0 93.4362 -69.11 16.6825
97.7786 -65.0088 0 93.2651 -69.4275 16.6825 -82.8051 83.3704 0 93.5237
-71.5404 0 46.0948 -106.566 20.3576 95.7654 -68.7426 0 5.8477 116.3
18.4069 -3.9422 116.415 18.4069 -116.56 -18.359 0 88.315 -78.2765 0
94.1172 -67.847 21.5768 93.9943 -68.075 21.5768 90.9034 -73.4759 16.6825 -105.392
-53.3139 0 -6.6771 117.938 0 -5.608 -117.183 14.1732 87.987 -78.8849
0 -81.7048 85.3825 0 93.4362 -69.11 21.5768 92.2018 -73.9917 0
87.862 -79.1167 0 93.2651 -69.4275 21.5768 98.2759 -62.1776 21.5768 90.3324
-74.5349 16.6825 96.9826 -64.5763 21.5768 92.4426 -70.9528 21.5768 90.3324 -74.5349
21.5768 88.315 -78.2765 16.6825 -106.363 -41.1983 35.1983 97.7786 -65.0088 21.5768
93.5237 -71.5404 21.5768 25.6111 117.043 0 95.7654 -68.7426 21.5768 88.315
-78.2765 21.5768 87.987 -78.8849 21.5768 92.2018 -73.9917 21.5768 87.862 -79.1167
21.5768 -34.1205 115.384 0 -34.133 115.386 0 46.2198 -111.369 0
25.6111 117.043 18.4069 46.2198 -111.369 14.2951 -110.49 -50.4875 0 75.722
-95.086 0 101.536 -66.9992 0 -34.133 115.386 18.0533 108.731 -54.7379
0 -107.492 -45.0381 35.1983 -35.8919 116.371 0 -35.9044 116.373 0
108.675 -55.0347 0 75.2887 -95.8794 0 110.852 -50.9972 0 -119.653
-23.9607 0 99.6118 -70.5689 0 99.4583 -70.8535 0 -108.245 -44.6202
[...]
CELL_DATA 28376
FIELD attributes 1
zone 1 28376 float
0 0 0 0 0 0 0 0 0 0 0
0 0 0 0 0 0 0 0 0 0
0 0 0 0 0 0 0 0 0 0
0 0 0 0 0 0 0 0 0 0
0 0 0 0 0 0 0 1 1 1
1 1 1 1 1 1 1 1 1 1
1 1 1 1 1 1 1 1 1 1
1 1 1 1 1 1 1 1 1 1
1 1 1 1 1 1 1 1 1 1
1 1 1 1 1 1 1 1 1 1
1 1 1 1 1 1 1 1 1 1
1 1 1 1 1 1 1 1 1 1
1 1 1 1 1 1 1 2 2 2
2 2 2 2 2 2 2 2 2 2
2 2 2 2 2 2 2 2 2 2
2 2 2 2 2 2 2 2 2 2
2 2 2 2 2 2 2 3 3 3
3 3 3 3 3 3 3 3 3 3
3 3 3 3 3 3 3 3 3 3
3 4 4 4 4 4 4 4 4 4
4 4 4 5 5 5 5 5 5 5
5 5 5 5 5 5 5 5 5 5
5 5 5 5 5 5 5 5 5 5
5 6 6 6 6 6 6 6 6 6
6 6 6 6 6 6 6 6 6 6
6 6 6 6 6 6 6 6 6 6
6 6 6 6 6 6 6 6 6 6
6 6 6 6 6 5 5 5 5 5
5 5 5 5 5 5 5 5 5 5
5 5 5 5 5 5 5 5 5 5
5 5 5 0 0 0 0 0 0 0
0 0 0 0 0 0 0 0 0 0
0 0 0 0 0 0 0 0 0 0
0 5 5 5 5 5 5 5 5 5
5 5 5 5 5 5 5 5 5 5
5 5 5 5 5 5 5 5 5 7
7 7 7 7 7 7 7 7 7 7
7 7 7 7 7 7 7 7 7 8
8 8 8 8 8 8 8 8 8 8
8 8 8 8 8 8 8 8 8 8
8 8 8 8 8 8 8 8 8 8
8 8 8 8 8 8 8 8 8 8
8 8 8 8 8 8 8 8 8 8
8 8 8 8 8 8 8 8 8 9
9 9 9 9 9 9 9 9 9 9
9 7 7 7 7 7 7 7 7 7
7 7 7 7 7 7 7 7 7 7
7 7 7 7 7 7 7 7 7 7
7 7 7 10 10 10 10 10 10 10
10 10 10 10 10 5 5 5 5 5
5 5 5 5 5 5 5 0 0 0
0 0 0 0 0 0 0 0 0 0
0 0 0 0 0 0 0 0 0 0
0 0 0 0 0 0 0 0 0 0
0 0 0 0 0 0 0 0 0 0
0 0 0 0 0 0 0 0 0 0
0 0 0 0 0 0 0 0 0 0
0 0 0 0 0 0 0 0 0 0
0 0 0 0 0 0 0 0 0 0
0 0 0 0 0 0 0 0 0 7
7 7 7 7 7 7 7 7 7 7
7 7 7 7 7 7 7 7 7 7
7 7 7 7 7 7 7 7 7 7
7 0 0 0 0 0 0 0 0 0
0 0 0 0 0 0 0 0 0 0
0 0 0 0 0 0 0 0 0 0
0 0 0 0 0 0 0 7 7 7
7 7 7 7 7 7 7 7 7 7
7 7 7 7 7 7 7 7 7 7
7 7 7 7 7 10 10 10 10 10
10 10 10 10 10 10 10 10 10 10
10 10 10 10 10 10 10 10 10 10
10 10 10 10 10 10 10 10 10 10
10 10 10 10 10 10 10 10 10 10
10 10 10 10 10 10 10 10 10 10
10 10 10 10 10 5 5 5 5 5
5 5 5 5 5 5 5 5 5 5
5 3 3 3 3 3 3 3 3 3
3 3 3 3 3 3 3 4 4 4
4 4 4 4 4 4 4 4 4 11
11 11 11 11 11 11 11 11 11 11
11 11 11 11 11 11 11 11 11 11
11 11 11 11 11 11 11 12 12 12
12 12 12 12 12 12 12 12 12 5
5 5 5 5 5 5 5 5 5 5
5 5 5 5 5 5 5 5 5 5
5 5 5 5 5 5 5 8 8 8
8 8 8 8 8 8 8 8 8 8
8 8 8 8 8 8 8 8 8 8
8 8 8 8 8 8 8 8 8 8
8 8 8 8 8 8 8 7 7 7
7 7 7 7 7 7 7 7 7 7
7 7 7 7 7 7 7 6 6 6
6 6 6 6 6 6 6 6 6 6
6 6 6 6 6 6 6 6 6 6
6 6 6 6 6 6 6 6 6 6
6 6 6 6 6 6 6 6 6 6
6 6 6 6 6 6 6 6 6 6
6 6 6 11 11 11 11 11 11 11
11 11 11 11 11 5 5 5 5 5
5 5 5 5 5 5 5 5 5 5
5 5 5 5 5 13 13 13 13 13
13 13 13 13 13 13 13 13 13 13
13 13 13 13 13 13 13 13 13 13
13 13 13 13 13 13 13 13 13 13
13 13 13 13 13 14 14 14 14 14
14 14 14 14 14 14 14 4 4 4
4 4 4 4 4 4 4 4 4 4
4 4 4 4 4 4 4 5 5 5
5 5 5 5 5 5 5 5 5 5
5 5 5 5 5 5 5 5 5 5
5 5 5 5 5 5 5 5 5 5
5 5 5 5 5 5 5 5 5 5
5 5 5 5 5 11 11 11 11 11
11 11 11 11 11 11 11 11 11 11
11 11 11 11 11 11 11 11 11 11
11 11 11 11 11 11 11 11 11 11
11 11 11 11 11 11 11 11 11 11
11 11 11 11 11 11 11 11 11 11
11 11 11 11 11 11 11 11 11 11
11 11 11 11 11 11 11 11 11 11
11 5 5 5 5 5 5 5 5 5
5 5 5 5 5 5 5 5 5 5
5 5 5 5 5 5 5 5 5 5
5 5 5 5 5 5 5 5 5 5
5 5 5 5 5 5 5 5 5 5
5 5 5 5 5 5 5 5 5 5
5 5 5 5 5 5 5 5 5 7
7 7 7 7 7 7 7 7 7 7
7 7 7 7 7 7 7 7 7 10
10 10 10 10 10 10 10 10 10 10
10 10 10 10 10 10 10 10 10 3
3 3 3 3 3 3 3 3 3 3
3 3 3 3 3 3 3 3 3 3
3 3 3 3 3 3 3 3 3 3
3 15 15 15 15 15 15 15 15 15
15 15 15 15 15 15 15 15 15 15
15 15 15 15 15 15 15 15 15 15
15 15 15 15 15 15 15 15 15 15
15 15 15 15 15 15 15 15 15 15
15 15 15 16 16 16 16 16 16 16
16 16 16 16 16 16 16 16 16 16
16 16 16 3 3 3 3 3 3 3
3 3 3 3 3 3 3 3 3 3
3 3 3 3 3 3 3 3 3 3
3 10 10 10 10 10 10 10 10 10
10 10 10 6 6 6 6 6 6 6
6 6 6 6 6 6 6 6 6 6
6 6 6 6 6 6 6 6 6 6
6 6 6 6 6 6 6 6 6 6
6 6 6 6 6 6 6 6 6 6
6 6 6 6 6 1 1 1 1 1
1 1 1 1 1 1 1 1 1 1
1 1 1 1 1 1 1 1 1 1
1 1 1 1 1 1 1 1 1 1
1 4 4 4 4 4 4 4 4 4
4 4 4 17 17 17 17 17 17 17
17 17 17 17 17 17 17 17 17 17
17 17 17 17 17 17 17 17 17 17
17 17 17 17 17 17 17 17 17 17
17 17 17 17 17 17 17 17 17 17
17 17 17 17 17 17 17 17 17 17
17 17 17 17 17 17 17 17 17 17
17 17 17 17 17 17 17 17 17 17
17 17 17 17 17 17 17 17 17 17
17 17 17 17 17 17 17 17 17 11
11 11 11 11 11 11 11 11 11 11
11 11 11 11 11 11 11 11 11 11
11 11 11 11 11 11 11 11 11 11
11 11 11 11 11 11 11 11 11 11
11 11 11 11 11 11 11 11 11 11
11 11 11 11 11 11 11 11 11 11
11 11 11 11 11 11 11 11 11 11
11 7 7 7 7 7 7 7 7 7
7 7 7 7 7 7 7 7 7 7
7 15 15 15 15 15 15 15 15 15
15 15 15 15 15 15 15 15 15 15
15 15 15 15 15 15 15 15 15 15
15 15 15 15 15 15 15 15 15 15
15 15 15 15 15 15 15 15 15 15
15 15 15 18 18 18 18 18 18 18
18 18 18 18 18 18 18 18 18 18
18 18 18 7 7 7 7 7 7 7
7 7 7 7 7 7 7 7 7 7
7 7 7 7 7 7 7 7 7 7
7 7 7 7 7 7 7 7 7 7
7 7 7 7 7 7 7 7 7 7
7 7 7 7 7 7 7 7 7 7
7 7 7 7 7 7 7 7 7 7
7 7 7 7 7 7 7 7 7 7
7 7 7 7 7 7 7 7 7 7
7 7 7 7 7 10 10 10 10 10
10 10 10 10 10 10 10 10 10 10
10 10 10 10 10 10 10 10 10 10
10 10 10 10 10 10 10 10 10 10
10 17 17 17 17 17 17 17 17 17
17 17 17 17 17 17 17 17 17 17
17 17 17 17 17 10 10 10 10 10
10 10 10 10 10 10 10 10 10 10
10 5 5 5 5 5 5 5 5 5
5 5 5 5 5 5 5 5 5 5
5 5 5 5 5 5 5 5 5 5
5 5 5 5 5 5 5 5 5 5
5 5 5 5 5 5 5 5 5 5
5 5 5 5 5 5 5 5 5 5
5 10 10 10 10 10 10 10 10 10
10 10 10 17 17 17 17 17 17 17
17 17 17 17 17 17 17 17 17 9
9 9 9 9 9 9 9 9 9 9
9 1 1 1 1 1 1 1 1 1
1 1 1 1 1 1 1 1 1 1
1 4 4 4 4 4 4 4 4 4
4 4 4 10 10 10 10 10 10 10
10 10 10 10 10 10 10 10 10 10
10 10 10 10 10 10 10 10 10 10
10 5 5 5 5 5 5 5 5 5
5 5 5 5 5 5 5 2 2 2
2 2 2 2 2 2 2 2 2 2
2 2 2 2 2 2 2 2 2 2
2 2 2 2 2 2 2 2 2 2
2 2 2 2 2 2 2 2 2 2
2 10 10 10 10 10 10 10 10 10
10 10 10 10 10 10 10 10 10 10
10 10 10 10 10 10 10 10 10 10
10 10 10 10 10 10 10 10 10 10
10 10 10 10 10 10 10 10 10 10
10 10 10 10 10 10 10 10 10 10
10 15 15 15 15 15 15 15 15 15
15 15 15 15 15 15 15 15 15 15
15 15 15 15 15 15 15 15 15 15
15 15 15 15 15 15 15 15 15 15
15 15 15 15 15 15 15 15 15 15
15 15 15 15 15 15 15 15 15 15
15 15 15 15 15 15 15 15 15 15
15 15 15 15 15 15 15 15 15 15
15 15 15 15 15 15 15 15 15 15
15 15 15 15 15 15 15 15 15 15
15 15 15 15 15 15 15 15 15 15
15 15 15 15 15 15 15 15 15 15
15 7 7 7 7 7 7 7 7 7
7 7 7 7 7 7 7 7 7 7
7 7 7 7 7 17 17 17 17 17
17 17 17 17 17 17 17 17 17 17
17 17 17 17 17 17 17 17 17 17
17 17 17 17 17 17 17 0 0 0
0 0 0 0 0 0 0 0 0 0
0 0 0 0 0 0 0 0 0 0
0 0 0 0 0 0 0 0 0 0
0 0 0 0 0 0 0 0 0 0
0 0 0 0 0 0 0 0 0 17
17 17 17 17 17 17 17 17 17 17
17 17 17 17 17 17 17 17 17 17
17 17 17 17 17 17 17 17 17 17
17 13 13 13 13 13 13 13 13 13
13 13 13 2 2 2 2 2 2 2
2 2 2 2 2 2 2 2 2 2
2 2 2 2 2 2 2 2 2 2
2 2 2 2 2 2 2 2 2 2
2 2 2 2 2 2 2 2 2 2
2 19 19 19 19 19 19 19 19 19
19 19 19 19 19 19 19 19 19 19
19 1 1 1 1 1 1 1 1 1
1 1 1 1 1 1 1 1 1 1
1 1 1 1 1 1 1 1 1 1
1 1 1 1 1 1 1 1 1 1
1 1 1 1 1 1 1 1 1 1
1 1 1 1 1 1 1 1 1 1
1 1 1 1 1 15 15 15 15 15
15 15 15 15 15 15 15 15 15 15
15 15 15 15 15 15 15 15 15 15
15 15 15 15 15 15 15 15 15 15
15 15 15 15 15 15 15 15 15 15
15 15 15 15 15 15 15 15 15 15
15 10 10 10 10 10 10 10 10 10
10 10 10 10 10 10 10 10 10 10
10 10 10 10 10 10 10 10 10 10
10 10 10 10 10 10 10 10 10 10
10 10 10 10 10 10 10 10 10 10
10 10 10 10 10 10 10 10 10 10
10 10 10 10 10 10 10 10 10 10
10 10 10 10 10 10 10 10 10 10
10 10 10 10 10 10 10 10 10 10
10 10 10 10 10 10 10 10 10 10
10 10 10 10 10 10 10 10 10 10
10 10 10 15 15 15 15 15 15 15
15 15 15 15 15 15 15 15 15 15
15 15 15 15 15 15 15 15 15 15
15 15 15 15 15 15 15 15 15 15
15 15 15 15 15 15 15 15 15 15
15 15 15 15 15 15 15 15 15 15
15 15 15 20 20 20 20 20 20 20
20 20 20 20 20 20 20 20 20 20
20 20 20 20 20 20 20 20 20 20
20 20 20 20 20 20 20 20 20 20
20 20 20 20 20 20 20 20 20 20
20 20 20 20 20 20 20 20 20 20
20 20 20 20 20 20 20 10 10 10
10 10 10 10 10 10 10 10 10 10
10 10 10 10 10 10 10 10 10 10
10 10 10 10 10 10 10 10 10 15
15 15 15 15 15 15 15 15 15 15
15 15 15 15 15 15 15 15 15 15
15 15 15 15 15 15 15 15 15 15
15 15 15 15 15 15 15 15 15 15
15 15 15 15 15 15 15 15 15 15
15 15 15 15 15 15 15 15 15 15
15 15 15 15 15 15 15 15 15 15
15 7 7 7 7 7 7 7 7 7
7 7 7 7 7 7 7 7 7 7
7 7 7 7 7 7 7 7 7 7
7 7 7 7 7 7 7 7 7 7
7 7 7 7 7 7 7 7 7 21
21 21 21 21 21 21 21 21 21 21
21 4 4 4 4 4 4 4 4 4
4 4 4 22 22 22 22 22 22 22
22 22 22 22 22 22 22 22 22 22
22 22 22 22 22 22 22 22 22 22
22 22 22 22 22 21 21 21 21 21
21 21 21 21 21 21 21 21 21 21
21 21 21 21 21 21 21 21 21 21
21 21 21 22 22 22 22 22 22 22
22 22 22 22 22 22 22 22 22 22
22 22 22 22 22 22 22 22 22 22
22 22 22 22 22 22 22 22 22 22
22 22 22 22 22 22 22 22 22 22
22 22 22 22 22 22 22 22 22 21
21 21 21 21 21 21 21 21 21 21
21 21 21 21 21 21 21 21 21 21
21 21 21 21 21 21 21 21 21 21
21 21 21 21 21 23 23 23 23 23
23 23 23 23 23 23 23 23 23 23
23 23 23 23 23 23 23 23 23 23
23 23 23 23 23 23 23 15 15 15
15 15 15 15 15 15 15 15 15 15
15 15 15 15 15 15 15 15 15 15
15 15 15 15 15 15 15 15 15 15
15 15 15 15 15 15 15 15 15 15
15 15 15 15 15 15 15 15 15 15
15 15 15 15 15 15 15 15 15 15
15 15 15 15 15 15 15 15 15 15
15 15 15 15 15 15 15 15 15 15
15 15 15 15 15 15 15 15 15 15
15 15 15 15 15 15 15 15 15 15
15 15 15 15 15 15 15 15 15 15
15 15 15 21 21 21 21 21 21 21
21 21 21 21 21 21 21 21 21 21
21 21 21 21 21 21 21 21 21 21
21 21 21 21 21 21 21 21 21 21
21 21 21 21 21 21 21 21 21 21
21 15 15 15 15 15 15 15 15 15
15 15 15 15 15 15 15 15 15 15
15 15 15 15 15 15 15 15 15 15
15 15 15 15 15 15 15 24 24 24
24 24 24 24 24 24 24 24 24 25
25 25 25 25 25 25 25 25 25 25
25 25 25 25 25 25 25 25 25 24
24 24 24 24 24 24 24 24 24 24
24 24 24 24 24 24 24 24 24 24
24 24 24 24 24 24 24 24 24 24
24 24 24 24 24 15 15 15 15 15
15 15 15 15 15 15 15 15 15 15
15 15 15 15 15 15 15 15 15 15
15 15 15 26 26 26 26 26 26 26
26 26 26 26 26 26 26 26 26 26
26 26 26 26 26 26 26 26 26 26
26 26 26 26 26 21 21 21 21 21
21 21 21 21 21 21 21 21 21 21
21 21 21 21 21 21 21 21 21 21
21 21 21 21 21 21 21 21 21 21
21 24 24 24 24 24 24 24 24 24
24 24 24 24 24 24 24 24 24 24
24 24 24 24 24 24 24 24 24 24
24 24 24 24 24 24 24 24 24 24
24 24 24 24 24 24 24 24 24 24
24 24 24 24 24 24 24 7 7 7
7 7 7 7 7 7 7 7 7 7
7 7 7 7 7 7 7 7 7 7
7 25 25 25 25 25 25 25 25 25
25 25 25 15 15 15 15 15 15 15
15 15 15 15 15 15 15 15 15 15
15 15 15 15 15 15 15 15 15 15
15 27 27 27 27 27 27 27 27 27
27 27 27 27 27 27 27 27 27 27
27 27 27 27 27 27 27 27 27 27
27 27 27 27 27 27 27 27 27 27
27 27 27 27 27 27 27 27 27 27
27 27 27 27 27 27 27 27 27 27
27 27 27 27 27 27 27 27 27 27
27 27 27 27 27 27 27 27 27 27
27 27 27 27 27 27 27 27 27 25
25 25 25 25 25 25 25 25 25 25
25 25 25 25 25 25 25 25 25 25
25 25 25 25 25 25 25 7 7 7
7 7 7 7 7 7 7 7 7 7
7 7 7 7 7 7 7 7 7 7
7 7 7 7 7 7 7 7 7 7
7 7 7 28 28 28 28 28 28 28
28 28 28 28 28 28 28 28 28 28
28 28 28 25 25 25 25 25 25 25
25 25 25 25 25 25 25 25 25 25
25 25 25 21 21 21 21 21 21 21
21 21 21 21 21 21 21 21 21 21
21 21 21 21 21 21 21 21 21 21
21 21 21 21 21 21 21 21 21 21
21 21 21 21 21 21 21 21 21 21
21 21 21 21 21 21 21 21 21 21
21 21 21 21 21 21 21 21 21 21
21 21 21 21 21 21 21 21 21 21
21 21 21 24 24 24 24 24 24 24
24 24 24 24 24 24 24 24 24 24
24 24 24 24 24 24 24 24 24 24
24 28 28 28 28 28 28 28 28 28
28 28 28 29 29 29 29 29 29 29
29 29 29 29 29 29 29 29 29 29
29 29 29 29 29 29 29 29 29 29
29 29 29 29 29 29 29 29 29 29
29 29 29 29 29 29 29 28 28 28
28 28 28 28 28 28 28 28 28 28
28 28 28 28 28 28 28 28 28 28
28 28 28 28 28 28 28 28 28 10
10 10 10 10 10 10 10 10 10 10
10 10 10 10 10 10 10 10 10 10
10 10 10 10 10 10 10 10 10 10
10 10 10 10 10 10 10 10 10 10
10 10 10 10 10 10 10 10 10 10
10 10 10 10 10 23 23 23 23 23
23 23 23 23 23 23 23 23 23 23
23 23 23 23 23 23 23 23 23 23
23 23 23 23 23 23 23 23 23 23
23 28 28 28 28 28 28 28 28 28
28 28 28 21 21 21 21 21 21 21
21 21 21 21 21 21 21 21 21 21
21 21 21 21 21 21 21 21 21 21
21 21 21 21 21 21 21 21 21 21
21 21 21 21 21 21 21 15 15 15
15 15 15 15 15 15 15 15 15 15
15 15 15 15 15 15 15 15 15 15
15 15 15 15 15 15 15 15 15 15
15 15 15 29 29 29 29 29 29 29
29 29 29 29 29 29 29 29 29 29
29 29 29 29 29 29 29 29 29 29
29 29 29 29 29 29 29 29 29 29
29 29 29 25 25 25 25 25 25 25
25 25 25 25 25 25 25 25 25 25
25 25 25 25 25 25 25 25 25 25
25 25 25 25 25 25 25 25 25 25
25 25 25 25 25 25 25 25 25 25
25 25 25 25 25 25 25 25 25 25
25 25 25 25 25 25 25 25 25 25
25 25 25 25 25 25 25 25 25 25
25 25 25 25 25 25 25 25 25 25
25 21 21 21 21 21 21 21 21 21
21 21 21 21 21 21 21 21 21 21
21 21 21 21 21 26 26 26 26 26
26 26 26 26 26 26 26 26 26 26
26 7 7 7 7 7 7 7 7 7
7 7 7 7 7 7 7 7 7 7
7 21 21 21 21 21 21 21 21 21
21 21 21 21 21 21 21 21 21 21
21 15 15 15 15 15 15 15 15 15
15 15 15 15 15 15 15 15 15 15
15 15 15 15 15 15 15 15 15 25
25 25 25 25 25 25 25 25 25 25
25 7 7 7 7 7 7 7 7 7
7 7 7 24 24 24 24 24 24 24
24 24 24 24 24 24 24 24 24 24
24 24 24 24 24 24 24 24 24 24
24 24 24 24 24 30 30 30 30 30
30 30 30 30 30 30 30 30 30 30
30 30 30 30 30 30 30 30 30 30
30 30 30 21 21 21 21 21 21 21
21 21 21 21 21 21 21 21 21 21
21 21 21 21 21 21 21 21 21 21
21 21 21 21 21 21 21 21 21 21
21 21 21 21 21 21 21 21 21 21
21 21 21 21 21 21 21 21 21 21
21 21 21 21 21 21 21 21 21 21
21 21 21 21 21 21 21 21 21 21
21 21 21 21 21 21 21 21 21 21
21 21 21 21 21 27 27 27 27 27
27 27 27 27 27 27 27 27 27 27
27 15 15 15 15 15 15 15 15 15
15 15 15 15 15 15 15 15 15 15
15 15 15 15 15 15 15 15 15 15
15 15 15 15 15 15 15 15 15 15
15 15 15 15 15 15 15 15 15 15
15 15 15 15 15 15 15 15 15 15
15 15 15 15 15 31 31 31 31 31
31 31 31 31 31 31 31 24 24 24
24 24 24 24 24 24 24 24 24 15
15 15 15 15 15 15 15 15 15 15
15 26 26 26 26 26 26 26 26 26
26 26 26 26 26 26 26 25 25 25
25 25 25 25 25 25 25 25 25 25
25 25 25 24 24 24 24 24 24 24
24 24 24 24 24 24 24 24 24 24
24 24 24 24 24 24 24 24 24 24
24 24 24 24 24 24 24 24 24 24
24 24 24 24 24 24 24 24 24 24
24 24 24 24 24 24 24 24 24 24
24 24 24 24 24 24 24 24 24 24
24 24 24 24 24 24 24 24 24 24
24 24 24 15 15 15 15 15 15 15
15 15 15 15 15 15 15 15 15 15
15 15 15 32 32 32 32 32 32 32
32 32 32 32 32 32 32 32 32 32
32 32 32 32 32 32 32 32 32 32
32 32 32 32 32 32 32 32 32 32
32 32 32 32 32 32 32 32 32 32
32 32 32 32 32 32 32 32 32 32
32 32 32 32 32 32 32 32 32 32
32 32 32 32 32 29 29 29 29 29
29 29 29 29 29 29 29 29 29 29
29 29 29 29 29 29 29 29 29 29
29 29 29 29 29 29 29 25 25 25
25 25 25 25 25 25 25 25 25 25
25 25 25 15 15 15 15 15 15 15
15 15 15 15 15 15 15 15 15 15
15 15 15 15 15 15 15 15 15 15
15 15 15 15 15 15 15 15 15 15
15 15 15 15 15 15 15 24 24 24
24 24 24 24 24 24 24 24 24 24
24 24 24 28 28 28 28 28 28 28
28 28 28 28 28 28 28 28 28 28
28 28 28 28 28 28 28 28 28 28
28 28 28 28 28 28 28 28 28 28
28 28 28 28 28 28 28 28 28 28
28 28 28 28 28 10 10 10 10 10
10 10 10 10 10 10 10 15 15 15
15 15 15 15 15 15 15 15 15 15
15 15 15 15 15 15 15 15 15 15
15 15 15 15 15 29 29 29 29 29
29 29 29 29 29 29 29 29 29 29
29 29 29 29 29 29 29 29 29 29
29 29 29 24 24 24 24 24 24 24
24 24 24 24 24 24 24 24 24 24
24 24 24 26 26 26 26 26 26 26
26 26 26 26 26 26 26 26 26 26
26 26 26 24 24 24 24 24 24 24
24 24 24 24 24 24 24 24 24 24
24 24 24 24 24 24 24 24 24 24
24 33 33 33 33 33 33 33 33 33
33 33 33 33 33 33 33 33 33 33
33 33 33 33 33 33 33 33 33 24
24 24 24 24 24 24 24 24 24 24
24 24 24 24 24 24 24 24 24 24
24 24 24 24 24 24 24 21 21 21
21 21 21 21 21 21 21 21 21 21
21 21 21 21 21 21 21 21 21 21
21 21 21 21 21 30 30 30 30 30
30 30 30 30 30 30 30 30 30 30
30 30 30 30 30 21 21 21 21 21
21 21 21 21 21 21 21 21 21 21
21 21 21 21 21 21 21 21 21 21
21 21 21 21 21 21 21 21 21 21
21 21 21 21 21 21 21 21 21 27
27 27 27 27 27 27 27 27 27 27
27 27 27 27 27 27 27 27 27 21
21 21 21 21 21 21 21 21 21 21
21 21 21 21 21 21 21 21 21 21
21 21 21 21 21 21 21 21 21 21
21 21 21 21 21 21 21 21 21 21
21 21 21 21 21 21 21 15 15 15
15 15 15 15 15 15 15 15 15 15
15 15 15 15 15 15 15 15 15 15
15 15 15 15 15 15 15 15 15 15
15 15 15 15 15 15 15 15 15 15
15 15 15 15 15 15 15 15 15 15
15 15 15 15 15 15 15 15 15 15
15 15 15 15 15 15 15 15 15 15
15 15 15 15 15 15 15 15 15 15
15 25 25 25 25 25 25 25 25 25
25 25 25 25 25 25 25 21 21 21
21 21 21 21 21 21 21 21 21 21
21 21 21 21 21 21 21 21 21 21
21 21 21 21 21 21 21 21 21 21
21 21 21 15 15 15 15 15 15 15
15 15 15 15 15 15 15 15 15 15
15 15 15 15 15 15 15 7 7 7
7 7 7 7 7 7 7 7 7 7
7 7 7 7 7 7 7 29 29 29
29 29 29 29 29 29 29 29 29 29
29 29 29 29 29 29 29 29 29 29
29 29 29 29 29 29 29 29 29 28
28 28 28 28 28 28 28 28 28 28
28 29 29 29 29 29 29 29 29 29
29 29 29 29 29 29 29 29 29 29
29 29 29 29 29 29 29 29 29 29
29 29 29 29 29 29 29 25 25 25
25 25 25 25 25 25 25 25 25 25
25 25 25 25 25 25 25 25 25 25
25 25 25 25 25 25 25 25 25 25
25 25 25 25 25 25 25 25 25 25
25 25 25 25 25 25 25 25 25 25
25 25 25 25 25 25 25 25 25 25
25 25 25 25 25 34 34 34 34 34
34 34 34 34 34 34 34 34 34 34
34 34 34 34 34 34 34 34 34 34
34 34 34 24 24 24 24 24 24 24
24 24 24 24 24 24 24 24 24 24
24 24 24 24 24 24 24 23 23 23
23 23 23 23 23 23 23 23 23 23
23 23 23 23 23 23 23 23 23 23
23 7 7 7 7 7 7 7 7 7
7 7 7 21 21 21 21 21 21 21
21 21 21 21 21 21 21 21 21 21
21 21 21 21 21 21 21 21 21 21
21 21 21 21 21 21 21 21 21 21
21 21 21 21 21 21 21 30 30 30
30 30 30 30 30 30 30 30 30 30
30 30 30 30 30 30 30 30 30 30
30 30 30 30 30 23 23 23 23 23
23 23 23 23 23 23 23 23 23 23
23 23 23 23 23 23 23 23 23 15
15 15 15 15 15 15 15 15 15 15
15 15 15 15 15 15 15 15 15 15
15 15 15 15 15 15 15 15 15 15
15 15 15 15 15 15 15 15 15 15
15 15 15 15 15 15 15 15 15 15
15 21 21 21 21 21 21 21 21 21
21 21 21 21 21 21 21 21 21 21
21 21 21 21 21 21 21 21 21 21
21 21 21 21 21 21 21 24 24 24
24 24 24 24 24 24 24 24 24 24
24 24 24 24 24 24 24 24 24 24
24 24 24 24 24 24 24 24 24 24
24 24 24 24 24 24 24 24 24 24
24 24 24 24 24 24 24 24 24 24
24 24 24 24 24 24 24 24 24 24
24 24 24 24 24 24 24 24 24 24
24 24 24 24 24 24 24 24 24 24
24 24 24 24 24 24 24 24 24 21
21 21 21 21 21 21 21 21 21 21
21 21 21 21 21 21 21 21 21 23
23 23 23 23 23 23 23 23 23 23
23 23 23 23 23 23 23 23 23 23
23 23 23 23 23 23 23 23 23 23
23 23 23 23 23 23 23 23 23 23
23 23 23 23 23 23 23 23 23 23
23 23 23 23 23 23 23 23 23 23
23 23 23 23 23 23 23 23 23 23
23 23 23 23 23 23 23 23 23 23
23 23 23 23 23 23 23 23 23 23
23 23 23 23 23 28 28 28 28 28
28 28 28 28 28 28 28 28 28 28
28 15 15 15 15 15 15 15 15 15
15 15 15 15 15 15 15 15 15 15
15 15 15 15 15 15 15 15 15 15
15 15 15 15 15 15 15 15 15 15
15 15 15 15 15 15 15 15 15 15
15 15 15 15 15 15 15 15 15 15
15 7 7 7 7 7 7 7 7 7
7 7 7 7 7 7 7 7 7 7
7 7 7 7 7 7 7 7 7 30
30 30 30 30 30 30 30 30 30 30
30 30 30 30 30 30 30 30 30 30
30 30 30 30 30 30 30 30 30 30
30 29 29 29 29 29 29 29 29 29
29 29 29 29 29 29 29 29 29 29
29 29 29 29 29 29 29 29 29 29
29 29 29 29 29 29 29 30 30 30
30 30 30 30 30 30 30 30 30 30
30 30 30 30 30 30 30 21 21 21
21 21 21 21 21 21 21 21 21 21
21 21 21 21 21 21 21 21 21 21
21 21 21 21 21 21 21 21 21 21
21 21 21 21 21 21 21 21 21 21
21 15 15 15 15 15 15 15 15 15
15 15 15 15 15 15 15 15 15 15
15 15 15 15 15 15 15 15 15 15
15 15 15 15 15 15 15 15 15 15
15 15 15 15 15 15 15 15 15 15
15 15 15 30 30 30 30 30 30 30
30 30 30 30 30 30 30 30 30 30
30 30 30 30 30 30 30 10 10 10
10 10 10 10 10 10 10 10 10 10
10 10 10 10 10 10 10 10 10 10
10 10 10 10 10 10 10 10 10 10
10 10 10 10 10 10 10 10 10 10
10 10 10 10 10 10 10 10 10 10
10 10 10 10 10 10 10 10 10 10
10 27 27 27 27 27 27 27 27 27
27 27 27 27 27 27 27 27 27 27
27 27 27 27 27 27 27 27 27 27
27 27 27 27 27 27 27 24 24 24
24 24 24 24 24 24 24 24 24 24
24 24 24 15 15 15 15 15 15 15
15 15 15 15 15 15 15 15 15 15
15 15 15 15 15 15 15 15 15 15
15 15 15 15 15 15 15 15 15 15
15 15 15 15 15 15 15 29 29 29
29 29 29 29 29 29 29 29 29 29
29 29 29 29 29 29 29 29 29 29
29 29 29 29 29 29 29 29 29 24
24 24 24 24 24 24 24 24 24 24
24 24 24 24 24 24 24 24 24 24
24 24 24 30 30 30 30 30 30 30
30 30 30 30 30 30 30 30 30 30
30 30 30 30 30 30 30 34 34 34
34 34 34 34 34 34 34 34 34 34
34 34 34 21 21 21 21 21 21 21
21 21 21 21 21 21 21 21 21 21
21 21 21 21 21 21 21 34 34 34
34 34 34 34 34 34 34 34 34 34
34 34 34 34 34 34 34 34 34 34
34 34 34 34 34 35 35 35 35 35
35 35 35 35 35 35 35 10 10 10
10 10 10 10 10 10 10 10 10 10
10 10 10 10 10 10 10 25 25 25
25 25 25 25 25 25 25 25 25 25
25 25 25 25 25 25 25 25 25 25
25 25 25 25 25 15 15 15 15 15
15 15 15 15 15 15 15 15 15 15
15 15 15 15 15 36 36 36 36 36
36 36 36 36 36 36 36 36 36 36
36 36 36 36 36 36 36 36 36 36
36 36 36 36 36 36 36 36 36 36
36 36 36 36 36 36 36 36 36 37
37 37 37 37 37 37 37 37 37 37
37 37 37 37 37 37 37 37 37 37
37 37 37 37 37 37 37 37 37 37
37 37 37 37 37 37 37 37 37 37
37 37 37 37 37 37 37 37 37 37
37 37 37 37 37 37 37 37 37 37
37 37 37 37 37 37 37 37 37 37
37 37 37 37 37 37 37 37 37 37
37 37 37 37 37 37 37 37 37 37